# vtk DataFile Version 2.0
SquareFaceSet, Created by Gmsh 4.10.3 
ASCII
DATASET UNSTRUCTURED_GRID
POINTS 13 double
0 0 0
1 0 0
1 1 0
0 1 0
0.5 0 0
1 0.5 0
0.5 1 0
0 0.5 0
0.5 0.5 0
0.75 0.25 0
0.75 0.75 0
0.25 0.75 0
0.25 0.25 0

CELLS 28 96
1 0
1 1
1 2
1 3
2 0 4
2 4 1
2 1 5
2 5 2
2 2 6
2 6 3
2 3 7
2 7 0
3 4 12 0
3 0 12 7
3 1 9 4
3 5 9 1
3 2 10 5
3 6 10 2
3 3 11 6
3 7 11 3
3 4 9 8
3 8 12 4
3 8 9 5
3 5 10 8
3 8 10 6
3 6 11 8
3 8 11 7
3 7 12 8

CELL_TYPES 28
1
1
1
1
3
3
3
3
3
3
3
3
5
5
5
5
5
5
5
5
5
5
5
5
5
5
5
5

CELL_DATA 28
SCALARS CellEntityIds int 1
LOOKUP_TABLE default
-1
-1
-1
300
20
20
-1
-1
20
20
-1
-1
1
1
1
1
1
1
1
1
1
1
1
1
1
1
1
1
